TITLE     = "MESH FILE"
VARIABLES = "X"
"Y"
"DEPTH"
ZONE T="FE-Boundary: Src= Zone 1"
 STRANDID=0, SOLUTIONTIME=0
 N=566, E=566, ZONETYPE=FELineSeg
 DATAPACKING=POINT
 DT=(SINGLE SINGLE SINGLE )
 9.239380646E+001 1.051521015E+001 -1.000000000E+000
 9.233931732E+001 1.069493961E+001 -1.000000000E+000
 9.243489838E+001 1.087969971E+001 -1.000000000E+000
 9.257582855E+001 1.087849045E+001 -1.000000000E+000
 9.262570953E+001 1.071986008E+001 -1.000000000E+000
 9.257230377E+001 1.057479954E+001 -1.000000000E+000
 9.266815186E+001 1.131562042E+001 -1.000000000E+000
 9.255460358E+001 1.140460014E+001 -1.000000000E+000
 9.252358246E+001 1.159521008E+001 -1.000000000E+000
 9.252008057E+001 1.178816032E+001 -1.000000000E+000
 9.252912140E+001 1.197906017E+001 -1.000000000E+000
 9.260700226E+001 1.215118980E+001 -1.000000000E+000
 9.269847107E+001 1.231237030E+001 -1.000000000E+000
 9.269689941E+001 1.250522041E+001 -1.000000000E+000
 9.269554138E+001 1.269777966E+001 -1.000000000E+000
 9.266200256E+001 1.288350010E+001 -1.000000000E+000
 9.269216156E+001 1.307765007E+001 -1.000000000E+000
 9.282489777E+001 1.322747993E+001 -1.000000000E+000
 9.284307861E+001 1.342640018E+001 -1.000000000E+000
 9.296896362E+001 1.358209038E+001 -1.000000000E+000
 9.311544800E+001 1.353034019E+001 -1.000000000E+000
 9.311042023E+001 1.332859039E+001 -1.000000000E+000
 9.306719971E+001 1.313304996E+001 -1.000000000E+000
 9.303196716E+001 1.293618965E+001 -1.000000000E+000
 9.299517059E+001 1.276424980E+001 -1.000000000E+000
 9.298301697E+001 1.256939983E+001 -1.000000000E+000
 9.292929840E+001 1.238805962E+001 -1.000000000E+000
 9.288439941E+001 1.220740032E+001 -1.000000000E+000
 9.279685211E+001 1.203629971E+001 -1.000000000E+000
 9.279757690E+001 1.184191036E+001 -1.000000000E+000
 9.275090790E+001 1.167498970E+001 -1.000000000E+000
 9.272875977E+001 1.148715019E+001 -1.000000000E+000
 7.998636627E+001 9.577854156E+000 -1.000000000E+000
 8.000948334E+001 9.715584755E+000 -1.000000000E+000
 8.018934631E+001 9.790327072E+000 -1.000000000E+000
 8.038211060E+001 9.747569084E+000 -1.000000000E+000
 8.053331757E+001 9.621859550E+000 -1.000000000E+000
 8.068791962E+001 9.497978210E+000 -1.000000000E+000
 8.083049011E+001 9.360175133E+000 -1.000000000E+000
 8.097207642E+001 9.221940994E+000 -1.000000000E+000
 8.105570984E+001 9.042554855E+000 -1.000000000E+000
 8.116481018E+001 8.878166199E+000 -1.000000000E+000
 8.130697632E+001 8.740582466E+000 -1.000000000E+000
 8.137406158E+001 8.564609528E+000 -1.000000000E+000
 8.150074005E+001 8.418187141E+000 -1.000000000E+000
 8.154689789E+001 8.225610733E+000 -1.000000000E+000
 8.162288666E+001 8.042337418E+000 -1.000000000E+000
 8.173139954E+001 7.877500057E+000 -1.000000000E+000
 8.185234070E+001 7.720524788E+000 -1.000000000E+000
 8.193979645E+001 7.542778015E+000 -1.000000000E+000
 8.199797058E+001 7.353220940E+000 -1.000000000E+000
 8.201022339E+001 7.155726910E+000 -1.000000000E+000
 8.200829315E+001 6.957534790E+000 -1.000000000E+000
 8.196695709E+001 6.763658047E+000 -1.000000000E+000
 8.190895844E+001 6.574003220E+000 -1.000000000E+000
 8.179888153E+001 6.411974907E+000 -1.000000000E+000
 8.163778687E+001 6.296220779E+000 -1.000000000E+000
 8.147300720E+001 6.186161041E+000 -1.000000000E+000
 8.129081726E+001 6.107636929E+000 -1.000000000E+000
 8.110466766E+001 6.039155960E+000 -1.000000000E+000
 8.092874146E+001 5.947865963E+000 -1.000000000E+000
 8.073648071E+001 5.903868198E+000 -1.000000000E+000
 8.053984070E+001 5.917246819E+000 -1.000000000E+000
 8.035961914E+001 5.999207020E+000 -1.000000000E+000
 8.023539734E+001 6.150172234E+000 -1.000000000E+000
 8.017031097E+001 6.337244987E+000 -1.000000000E+000
 8.012660980E+001 6.530759811E+000 -1.000000000E+000
 8.003450012E+001 6.705200195E+000 -1.000000000E+000
 8.001759338E+001 6.902602196E+000 -1.000000000E+000
 8.002191925E+001 7.100371838E+000 -1.000000000E+000
 7.997200775E+001 7.292459965E+000 -1.000000000E+000
 7.994249725E+001 7.488634109E+000 -1.000000000E+000
 7.993080139E+001 7.686822891E+000 -1.000000000E+000
 7.989562988E+001 7.881673813E+000 -1.000000000E+000
 7.984252930E+001 8.071975708E+000 -1.000000000E+000
 7.988384247E+001 8.264333725E+000 -1.000000000E+000
 7.996481323E+001 8.444914818E+000 -1.000000000E+000
 8.008809662E+001 8.599275589E+000 -1.000000000E+000
 8.005516052E+001 8.789343834E+000 -1.000000000E+000
 8.006755066E+001 8.961562157E+000 -1.000000000E+000
 8.021704865E+001 9.077409744E+000 -1.000000000E+000
 8.022942352E+001 9.273817062E+000 -1.000000000E+000
 8.026290131E+001 9.428896904E+000 -1.000000000E+000
 8.017549896E+001 9.577500343E+000 -1.000000000E+000
 8.065879059E+001 1.582077026E+001 -1.000000000E+000
 8.046560669E+001 1.578703976E+001 -1.000000000E+000
 8.079083252E+001 1.567298985E+001 -1.000000000E+000
 8.029665375E+001 1.567840958E+001 -1.000000000E+000
 8.019909668E+001 1.550405025E+001 -1.000000000E+000
 8.012303162E+001 1.531851959E+001 -1.000000000E+000
 8.002802277E+001 1.514346027E+001 -1.000000000E+000
 8.003505707E+001 1.494182968E+001 -1.000000000E+000
 8.006091309E+001 1.474217033E+001 -1.000000000E+000
 8.016442108E+001 1.456048012E+001 -1.000000000E+000
 8.020758820E+001 1.435855007E+001 -1.000000000E+000
 8.014370728E+001 1.415995026E+001 -1.000000000E+000
 8.015508270E+001 1.395452976E+001 -1.000000000E+000
 8.025292206E+001 1.376978016E+001 -1.000000000E+000
 8.025939178E+001 1.356182957E+001 -1.000000000E+000
 8.034358215E+001 1.337275982E+001 -1.000000000E+000
 8.037703705E+001 1.320028019E+001 -1.000000000E+000
 8.034131622E+001 1.302373028E+001 -1.000000000E+000
 8.031578064E+001 1.284541988E+001 -1.000000000E+000
 8.028991699E+001 1.266716003E+001 -1.000000000E+000
 8.023240662E+001 1.246228027E+001 -1.000000000E+000
 8.013865662E+001 1.227112007E+001 -1.000000000E+000
 8.002577972E+001 1.209043980E+001 -1.000000000E+000
 7.991230011E+001 1.191059971E+001 -1.000000000E+000
 7.987454987E+001 1.170761967E+001 -1.000000000E+000
 7.987757874E+001 1.150032043E+001 -1.000000000E+000
 7.991779327E+001 1.129703999E+001 -1.000000000E+000
 7.996135712E+001 1.109996986E+001 -1.000000000E+000
 7.997962952E+001 1.089885998E+001 -1.000000000E+000
 7.998854065E+001 1.069711018E+001 -1.000000000E+000
 7.998262787E+001 1.049524975E+001 -1.000000000E+000
 8.000480652E+001 1.031054020E+001 -1.000000000E+000
 7.991512299E+001 1.019507027E+001 -1.000000000E+000
 7.972992706E+001 1.021539974E+001 -1.000000000E+000
 7.954398346E+001 1.022690010E+001 -1.000000000E+000
 7.939469147E+001 1.016032982E+001 -1.000000000E+000
 7.937947083E+001 9.975730896E+000 -1.000000000E+000
 7.928101349E+001 9.822441101E+000 -1.000000000E+000
 7.917353821E+001 9.672326088E+000 -1.000000000E+000
 7.907071686E+001 9.519967079E+000 -1.000000000E+000
 7.909594727E+001 9.348551750E+000 -1.000000000E+000
 7.922118378E+001 9.227518082E+000 -1.000000000E+000
 7.907359314E+001 9.155882835E+000 -1.000000000E+000
 7.889280701E+001 9.131598473E+000 -1.000000000E+000
 7.869818115E+001 9.049883842E+000 -1.000000000E+000
 7.849709320E+001 8.985137939E+000 -1.000000000E+000
 7.835954285E+001 8.834075928E+000 -1.000000000E+000
 7.835984802E+001 8.622900009E+000 -1.000000000E+000
 7.831759644E+001 8.417476654E+000 -1.000000000E+000
 7.820275116E+001 8.239731789E+000 -1.000000000E+000
 7.806468201E+001 8.081620216E+000 -4.217478943E+001
 7.792661285E+001 7.923509121E+000 -3.883475876E+001
 7.778854370E+001 7.765397072E+000 -5.081793976E+001
 7.765046692E+001 7.607285023E+000 -7.155143738E+001
 7.751241302E+001 7.449172974E+000 -1.160892029E+002
 7.737433624E+001 7.291060925E+000 -1.706764069E+002
 7.723626709E+001 7.132949829E+000 -2.624825134E+002
 7.709819794E+001 6.974837780E+000 -1.875475952E+003
 7.709819794E+001 6.779733181E+000 -2.186510010E+003
 7.709819794E+001 6.584628105E+000 -2.201352051E+003
 7.709819794E+001 6.389523029E+000 -2.196805908E+003
 7.709819794E+001 6.194417000E+000 -2.305241943E+003
 7.709819794E+001 5.999311924E+000 -2.398902100E+003
 7.709819794E+001 5.804206848E+000 -2.485614014E+003
 7.709819794E+001 5.609101772E+000 -2.541472900E+003
 7.709819794E+001 5.413997173E+000 -2.687606934E+003
 7.709819794E+001 5.218892097E+000 -2.911489990E+003
 7.709819794E+001 5.023787022E+000 -3.002705078E+003
 7.709819794E+001 4.828680992E+000 -3.006641113E+003
 7.709819794E+001 4.633575916E+000 -3.139648926E+003
 7.709819794E+001 4.438470840E+000 -3.293163086E+003
 7.709819794E+001 4.243365765E+000 -3.434309082E+003
 7.709819794E+001 4.048261166E+000 -3.506535889E+003
 7.709819794E+001 3.853154898E+000 -3.558089111E+003
 7.709819794E+001 3.658050060E+000 -3.687935059E+003
 7.709819794E+001 3.462944984E+000 -3.879688965E+003
 7.709819794E+001 3.267839909E+000 -3.965701904E+003
 7.709819794E+001 3.072735071E+000 -4.003459961E+003
 7.709819794E+001 2.877629995E+000 -4.070726074E+003
 7.709819794E+001 2.682523966E+000 -4.157926758E+003
 7.709819794E+001 2.487418890E+000 -4.206312012E+003
 7.709819794E+001 2.292314053E+000 -4.194919922E+003
 7.709819794E+001 2.097208977E+000 -4.225913086E+003
 7.709819794E+001 1.902104020E+000 -4.297235840E+003
 7.709819794E+001 1.706997991E+000 -4.354362793E+003
 7.709819794E+001 1.511893034E+000 -3.303928955E+003
 7.709819794E+001 1.316787958E+000 -4.553910156E+003
 7.709819794E+001 1.121683002E+000 -4.484268066E+003
 7.709819794E+001 9.265776873E-001 -4.492828125E+003
 7.709819794E+001 7.314726114E-001 -4.507220215E+003
 7.709819794E+001 5.363674164E-001 -4.525708008E+003
 7.709819794E+001 3.412621915E-001 -4.535250977E+003
 7.709819794E+001 1.461569965E-001 -4.543797852E+003
 7.709819794E+001 -4.894819856E-002 -4.567549805E+003
 7.709819794E+001 -2.440533936E-001 -4.602715820E+003
 7.709819794E+001 -4.391585886E-001 -4.643875000E+003
 7.709819794E+001 -6.342638135E-001 -4.686064941E+003
 7.709819794E+001 -8.293688893E-001 -4.717417969E+003
 7.709819794E+001 -1.024474025E+000 -4.726892090E+003
 7.709819794E+001 -1.219578981E+000 -4.723719238E+003
 7.709819794E+001 -1.414684057E+000 -4.703253906E+003
 7.709819794E+001 -1.609789968E+000 -4.659223145E+003
 7.709819794E+001 -1.804895043E+000 -4.621997070E+003
 7.709819794E+001 -2.000000000E+000 -4.657244141E+003
 7.729839325E+001 -2.000000000E+000 -4.735422852E+003
 9.871900177E+001 2.000000000E+000 -1.000000000E+000
 9.854190063E+001 2.091398001E+000 -1.000000000E+000
 9.871900177E+001 1.799999952E+000 -1.000000000E+000
 9.835362244E+001 2.156702995E+000 -1.000000000E+000
 9.816876984E+001 2.230616093E+000 -1.000000000E+000
 9.800169373E+001 2.339008093E+000 -1.000000000E+000
 9.784810638E+001 2.466108084E+000 -1.000000000E+000
 9.769525146E+001 2.594069004E+000 -1.000000000E+000
 9.753404999E+001 2.711385012E+000 -1.000000000E+000
 9.738849640E+001 2.846910954E+000 -1.000000000E+000
 9.726730347E+001 3.005208015E+000 -1.000000000E+000
 9.713259888E+001 3.151942015E+000 -1.000000000E+000
 9.697406006E+001 3.272283077E+000 -1.000000000E+000
 9.679422760E+001 3.357831001E+000 -1.000000000E+000
 9.661179352E+001 3.437961102E+000 -1.000000000E+000
 9.645786285E+001 3.562640905E+000 -1.000000000E+000
 9.633670044E+001 3.720952988E+000 -1.000000000E+000
 9.619286346E+001 3.857765913E+000 -1.000000000E+000
 9.602430725E+001 3.964251995E+000 -1.000000000E+000
 9.587267303E+001 4.092943192E+000 -1.000000000E+000
 9.574379730E+001 4.245007038E+000 -1.000000000E+000
 9.561335754E+001 4.395705223E+000 -1.000000000E+000
 9.546774292E+001 4.531795979E+000 -1.000000000E+000
 9.531529236E+001 4.660311222E+000 -1.000000000E+000
 9.517730713E+001 4.803578854E+000 -1.000000000E+000
 9.511222076E+001 4.988670826E+000 -1.000000000E+000
 9.505445862E+001 5.175504208E+000 -1.000000000E+000
 9.503334045E+001 5.371685982E+000 -1.000000000E+000
 9.511393738E+001 5.520664215E+000 -1.000000000E+000
 9.529712677E+001 5.589715004E+000 -1.000000000E+000
 9.548927307E+001 5.537709236E+000 -1.000000000E+000
 9.566502380E+001 5.447524071E+000 -1.000000000E+000
 9.579743195E+001 5.299512863E+000 -1.000000000E+000
 9.596006012E+001 5.184393883E+000 -1.000000000E+000
 9.615557861E+001 5.153561115E+000 -1.000000000E+000
 9.635401917E+001 5.135869026E+000 -1.000000000E+000
 9.655137634E+001 5.160656929E+000 -1.000000000E+000
 9.674726868E+001 5.194381237E+000 -1.000000000E+000
 9.690026855E+001 5.082664013E+000 -1.000000000E+000
 9.708136749E+001 5.036496162E+000 -1.000000000E+000
 9.725218964E+001 5.136640072E+000 -1.000000000E+000
 9.738008118E+001 5.006011963E+000 -1.000000000E+000
 9.752356720E+001 4.910527229E+000 -1.000000000E+000
 9.772252655E+001 4.902861118E+000 -1.000000000E+000
 9.792182159E+001 4.898396969E+000 -1.000000000E+000
 9.812098694E+001 4.889204979E+000 -1.000000000E+000
 9.832035828E+001 4.887659073E+000 -1.000000000E+000
 9.851963806E+001 4.881512165E+000 -1.000000000E+000
 9.871900177E+001 4.881800175E+000 -1.000000000E+000
 9.872231293E+001 5.081614017E+000 -7.900000000E+001
 9.712740326E+001 1.707164955E+001 -1.000000000E+000
 9.702628326E+001 1.692727089E+001 -1.000000000E+000
 9.731780243E+001 1.681266022E+001 -1.000000000E+000
 9.730066681E+001 1.700943947E+001 -1.000000000E+000
 9.701867676E+001 1.673036957E+001 -1.000000000E+000
 9.687433624E+001 1.659365082E+001 -1.000000000E+000
 9.672988892E+001 1.645520973E+001 -1.000000000E+000
 9.653835297E+001 1.642313957E+001 -1.000000000E+000
 9.636168671E+001 1.634361076E+001 -1.000000000E+000
 9.620995331E+001 1.621397972E+001 -1.000000000E+000
 9.602393341E+001 1.614045906E+001 -1.000000000E+000
 9.584705353E+001 1.604858971E+001 -1.000000000E+000
 9.572894287E+001 1.588862038E+001 -1.000000000E+000
 9.562448120E+001 1.571842957E+001 -1.000000000E+000
 9.543965912E+001 1.567591953E+001 -1.000000000E+000
 9.524684906E+001 1.573003960E+001 -1.000000000E+000
 9.505023193E+001 1.576562023E+001 -1.000000000E+000
 9.485040283E+001 1.577453041E+001 -1.000000000E+000
 9.468260956E+001 1.587810993E+001 -1.000000000E+000
 9.450940704E+001 1.597241974E+001 -1.000000000E+000
 9.431178284E+001 1.600348091E+001 -1.000000000E+000
 9.424806976E+001 1.617107964E+001 -1.000000000E+000
 9.431080627E+001 1.636096954E+001 -1.000000000E+000
 9.439116669E+001 1.654445076E+001 -1.000000000E+000
 9.446540070E+001 1.673040962E+001 -1.000000000E+000
 9.451846313E+001 1.692351913E+001 -1.000000000E+000
 9.457792664E+001 1.711463928E+001 -1.000000000E+000
 9.465968323E+001 1.729747963E+001 -1.000000000E+000
 9.470372009E+001 1.749132919E+001 -1.000000000E+000
 9.467095947E+001 1.768841934E+001 -1.000000000E+000
 9.462206268E+001 1.788261986E+001 -1.000000000E+000
 9.459857941E+001 1.808143997E+001 -1.000000000E+000
 9.457127380E+001 1.827968979E+001 -1.000000000E+000
 9.450377655E+001 1.846791077E+001 -1.000000000E+000
 9.440740204E+001 1.864337921E+001 -1.000000000E+000
 9.429814911E+001 1.881126022E+001 -1.000000000E+000
 9.418788910E+001 1.897847939E+001 -1.000000000E+000
 9.408219910E+001 1.914863014E+001 -1.000000000E+000
 9.397585297E+001 1.931837082E+001 -1.000000000E+000
 9.386253357E+001 1.948350906E+001 -1.000000000E+000
 9.373713684E+001 1.963964081E+001 -1.000000000E+000
 9.360140991E+001 1.978692055E+001 -1.000000000E+000
 9.345966339E+001 1.992844009E+001 -1.000000000E+000
 9.331569672E+001 2.006772995E+001 -1.000000000E+000
 9.317196655E+001 2.020723915E+001 -1.000000000E+000
 9.302806854E+001 2.034656906E+001 -1.000000000E+000
 9.288326263E+001 2.048497009E+001 -1.000000000E+000
 9.273921967E+001 2.062416077E+001 -1.000000000E+000
 9.260221863E+001 2.077022934E+001 -1.000000000E+000
 9.248018646E+001 2.092893028E+001 -1.000000000E+000
 9.237468719E+001 2.109914970E+001 -1.000000000E+000
 9.227584839E+001 2.127337074E+001 -1.000000000E+000
 9.217404175E+001 2.144586945E+001 -1.000000000E+000
 9.207868958E+001 2.162191010E+001 -1.000000000E+000
 9.202127838E+001 2.181296921E+001 -1.000000000E+000
 9.202662659E+001 2.201279068E+001 -1.000000000E+000
 9.203884888E+001 2.221254921E+001 -1.000000000E+000
 9.199994659E+001 2.240802956E+001 -1.000000000E+000
 9.187695313E+001 2.256163979E+001 -1.000000000E+000
 9.168621063E+001 2.261561012E+001 -1.000000000E+000
 9.148745728E+001 2.259638977E+001 -1.000000000E+000
 9.129869080E+001 2.253059006E+001 -1.000000000E+000
 9.112886810E+001 2.242509079E+001 -1.000000000E+000
 9.097738647E+001 2.229413986E+001 -1.000000000E+000
 9.082588959E+001 2.216323090E+001 -1.000000000E+000
 9.065170288E+001 2.206582069E+001 -1.000000000E+000
 9.045838165E+001 2.201440048E+001 -1.000000000E+000
 9.026030731E+001 2.198465919E+001 -1.000000000E+000
 9.006227112E+001 2.195474052E+001 -1.000000000E+000
 8.986578369E+001 2.191587067E+001 -1.000000000E+000
 8.966993713E+001 2.187380028E+001 -1.000000000E+000
 8.947334290E+001 2.183547974E+001 -1.000000000E+000
 8.927543640E+001 2.180458069E+001 -1.000000000E+000
 8.907653809E+001 2.178101921E+001 -1.000000000E+000
 8.887690735E+001 2.176460075E+001 -1.000000000E+000
 8.867682648E+001 2.175538063E+001 -1.000000000E+000
 8.847653961E+001 2.175379944E+001 -1.000000000E+000
 8.827635193E+001 2.176025963E+001 -1.000000000E+000
 8.807647705E+001 2.177341080E+001 -1.000000000E+000
 8.787638855E+001 2.178219986E+001 -1.000000000E+000
 8.767652130E+001 2.177156067E+001 -1.000000000E+000
 8.747897339E+001 2.173856926E+001 -1.000000000E+000
 8.728146362E+001 2.170531082E+001 -1.000000000E+000
 8.709478760E+001 2.163628960E+001 -1.000000000E+000
 8.693762970E+001 2.151243019E+001 -1.000000000E+000
 8.680882263E+001 2.136020088E+001 -1.000000000E+000
 8.681651306E+001 2.117247963E+001 -1.000000000E+000
 8.691519928E+001 2.099880028E+001 -1.000000000E+000
 8.695590210E+001 2.080381012E+001 -1.000000000E+000
 8.680808258E+001 2.068711090E+001 -1.000000000E+000
 8.675673676E+001 2.050668907E+001 -1.000000000E+000
 8.666439056E+001 2.034927940E+001 -1.000000000E+000
 8.648800659E+001 2.025808907E+001 -1.000000000E+000
 8.636715698E+001 2.009882927E+001 -1.000000000E+000
 8.619535828E+001 1.999843025E+001 -1.000000000E+000
 8.600459290E+001 1.993766022E+001 -1.000000000E+000
 8.581123352E+001 1.988537025E+001 -1.000000000E+000
 8.562029266E+001 1.982506943E+001 -1.000000000E+000
 8.543908691E+001 1.974008942E+001 -1.000000000E+000
 8.526612854E+001 1.963909912E+001 -1.000000000E+000
 8.509916687E+001 1.952850914E+001 -1.000000000E+000
 8.493879700E+001 1.940850067E+001 -1.000000000E+000
 8.479009247E+001 1.925946045E+001 -1.000000000E+000
 8.465650177E+001 1.909687996E+001 -1.000000000E+000
 8.454036713E+001 1.892127037E+001 -1.000000000E+000
 8.440437317E+001 1.876112938E+001 -1.000000000E+000
 8.426235199E+001 1.860589027E+001 -1.000000000E+000
 8.412654114E+001 1.844507980E+001 -1.000000000E+000
 8.396031952E+001 1.831719971E+001 -1.000000000E+000
 8.377282715E+001 1.822141075E+001 -1.000000000E+000
 8.361282349E+001 1.812118912E+001 -1.000000000E+000
 8.346687317E+001 1.800124931E+001 -1.000000000E+000
 8.333628845E+001 1.786482048E+001 -1.000000000E+000
 8.322590637E+001 1.771154976E+001 -1.000000000E+000
 8.310295868E+001 1.756999969E+001 -1.000000000E+000
 8.293020630E+001 1.749448013E+001 -1.000000000E+000
 8.275917053E+001 1.741456985E+001 -1.000000000E+000
 8.259639740E+001 1.731852913E+001 -1.000000000E+000
 8.243910217E+001 1.721385002E+001 -1.000000000E+000
 8.227147675E+001 1.709185028E+001 -1.000000000E+000
 8.229131317E+001 1.690456009E+001 -1.000000000E+000
 9.375029755E+001 6.698100090E+000 -1.000000000E+000
 9.364518738E+001 6.823140144E+000 -1.000000000E+000
 9.352285004E+001 6.992309093E+000 -1.000000000E+000
 9.352704620E+001 7.202106953E+000 -1.000000000E+000
 9.357479858E+001 7.392099857E+000 -1.000000000E+000
 9.369463348E+001 7.273348808E+000 -1.000000000E+000
 9.380151367E+001 7.101161003E+000 -1.000000000E+000
 9.383651733E+001 6.886076927E+000 -1.000000000E+000
 9.876860046E+001 7.879000187E+000 -1.000000000E+000
 9.857185364E+001 7.916143894E+000 -1.000000000E+000
 9.876529694E+001 7.679186821E+000 -1.000000000E+000
 9.837217712E+001 7.931785107E+000 -1.000000000E+000
 9.817646790E+001 7.970039845E+000 -1.000000000E+000
 9.806040192E+001 8.122578621E+000 -1.000000000E+000
 9.805198669E+001 8.322113037E+000 -1.000000000E+000
 9.806967926E+001 8.521628380E+000 -1.000000000E+000
 9.808834076E+001 8.721061707E+000 -1.000000000E+000
 9.811904144E+001 8.918899536E+000 -1.000000000E+000
 9.818109894E+001 9.108970642E+000 -1.000000000E+000
 9.827622986E+001 9.285138130E+000 -1.000000000E+000
 9.837235260E+001 9.460788727E+000 -1.000000000E+000
 9.843163300E+001 9.651284218E+000 -1.000000000E+000
 9.843446350E+001 9.851173401E+000 -1.000000000E+000
 9.841110229E+001 1.005008984E+001 -1.000000000E+000
 9.839099884E+001 1.024932957E+001 -1.000000000E+000
 9.839727783E+001 1.044923973E+001 -1.000000000E+000
 9.845339966E+001 1.064068031E+001 -1.000000000E+000
 9.855003357E+001 1.081606960E+001 -1.000000000E+000
 9.863301849E+001 1.099790001E+001 -1.000000000E+000
 9.866584015E+001 1.119493961E+001 -1.000000000E+000
 9.865189362E+001 1.139437008E+001 -1.000000000E+000
 9.860967255E+001 1.159016037E+001 -1.000000000E+000
 9.858405304E+001 1.178847027E+001 -1.000000000E+000
 9.859504700E+001 1.198834991E+001 -1.000000000E+000
 9.861306763E+001 1.218784046E+001 -1.000000000E+000
 9.862404633E+001 1.238784027E+001 -1.000000000E+000
 9.862917328E+001 1.258806992E+001 -1.000000000E+000
 9.862033081E+001 1.278806019E+001 -1.000000000E+000
 9.857495117E+001 1.298262024E+001 -1.000000000E+000
 9.849548340E+001 1.316646004E+001 -1.000000000E+000
 9.843469238E+001 1.335717010E+001 -1.000000000E+000
 9.831910706E+001 1.351541996E+001 -1.000000000E+000
 9.814845276E+001 1.362007999E+001 -1.000000000E+000
 9.807865143E+001 1.379535961E+001 -1.000000000E+000
 9.811390686E+001 1.399246979E+001 -1.000000000E+000
 9.807819366E+001 1.418605042E+001 -1.000000000E+000
 9.798137665E+001 1.436131954E+001 -1.000000000E+000
 9.791422272E+001 1.454975986E+001 -1.000000000E+000
 9.787185669E+001 1.474545956E+001 -1.000000000E+000
 9.784792328E+001 1.494425964E+001 -1.000000000E+000
 9.783853912E+001 1.514433002E+001 -1.000000000E+000
 9.783167267E+001 1.534451962E+001 -1.000000000E+000
 9.781680298E+001 1.554424953E+001 -1.000000000E+000
 9.779225922E+001 1.574304008E+001 -1.000000000E+000
 9.777926636E+001 1.594289017E+001 -1.000000000E+000
 9.773384857E+001 1.613652039E+001 -1.000000000E+000
 9.761319733E+001 1.629579926E+001 -1.000000000E+000
 9.750266266E+001 1.646161079E+001 -1.000000000E+000
 9.743266296E+001 1.664913940E+001 -1.000000000E+000
 8.230696106E+001 1.669828987E+001 -1.000000000E+000
 8.219893646E+001 1.653228951E+001 -1.000000000E+000
 8.201358795E+001 1.643987083E+001 -1.000000000E+000
 8.183495331E+001 1.633503914E+001 -1.000000000E+000
 8.163234711E+001 1.630220032E+001 -1.000000000E+000
 8.142653656E+001 1.632752037E+001 -1.000000000E+000
 8.123940277E+001 1.626601982E+001 -1.000000000E+000
 8.115363312E+001 1.607769012E+001 -1.000000000E+000
 8.106253815E+001 1.589144039E+001 -1.000000000E+000
 8.097910309E+001 1.570903969E+001 -1.000000000E+000
 9.872561646E+001 5.281425953E+000 -8.441072083E+001
 9.872891998E+001 5.481239796E+000 -9.100000000E+001
 9.873222351E+001 5.681053162E+000 -9.986464691E+001
 9.873552704E+001 5.880867004E+000 -1.010000000E+002
 9.873883820E+001 6.080679893E+000 -1.001054993E+002
 9.874214935E+001 6.280492783E+000 -9.546994019E+001
 9.874545288E+001 6.480307102E+000 -9.367526245E+001
 9.874875641E+001 6.680119991E+000 -8.726602173E+001
 9.875206757E+001 6.879932880E+000 -8.287608337E+001
 9.875537109E+001 7.079747200E+000 -8.521405792E+001
 9.875868225E+001 7.279560089E+000 -4.704792023E+001
 9.876199341E+001 7.479372978E+000 -2.423653984E+001
 9.871900177E+001 -2.000000000E+000 -1.624423950E+003
 9.871900177E+001 -1.799999952E+000 -1.047729980E+003
 9.851880646E+001 -2.000000000E+000 -3.287010010E+003
 9.871900177E+001 -1.600000024E+000 -9.114608765E+001
 9.871900177E+001 -1.399999976E+000 -1.000000000E+000
 9.871900177E+001 -1.200000048E+000 -1.000000000E+000
 9.871900177E+001 -9.999998808E-001 -1.000000000E+000
 9.871900177E+001 -8.000000119E-001 -5.461317062E+001
 9.871900177E+001 -6.000000238E-001 -4.494155884E+001
 9.871900177E+001 -4.000000060E-001 -1.872848053E+002
 9.871900177E+001 -2.000000030E-001 -7.113867950E+001
 9.871900177E+001 5.551114792E-017 -1.727737045E+001
 9.871900177E+001 2.000000030E-001 -8.277366638E+000
 9.871900177E+001 4.000000060E-001 -1.686132050E+001
 9.871900177E+001 6.000000238E-001 -2.000000000E+001
 9.871900177E+001 8.000000119E-001 -3.200000000E+001
 9.871900177E+001 9.999998808E-001 -4.286132050E+001
 9.871900177E+001 1.200000048E+000 -4.744527054E+001
 9.871900177E+001 1.399999976E+000 -4.547449112E+001
 9.871900177E+001 1.600000024E+000 -1.000000000E+000
 7.749858856E+001 -2.000000000E+000 -4.787662109E+003
 7.769877625E+001 -2.000000000E+000 -4.826779785E+003
 7.789897156E+001 -2.000000000E+000 -4.844000000E+003
 7.809915924E+001 -2.000000000E+000 -4.845950195E+003
 7.829934692E+001 -2.000000000E+000 -4.851960938E+003
 7.849954987E+001 -2.000000000E+000 -4.858974121E+003
 7.869973755E+001 -2.000000000E+000 -4.867983887E+003
 7.889993286E+001 -2.000000000E+000 -4.875000000E+003
 7.910012817E+001 -2.000000000E+000 -4.881007813E+003
 7.930032349E+001 -2.000000000E+000 -4.886000000E+003
 7.950051117E+001 -2.000000000E+000 -4.888000000E+003
 7.970070648E+001 -2.000000000E+000 -4.888000000E+003
 7.990088654E+001 -2.000000000E+000 -4.887000000E+003
 8.010108948E+001 -2.000000000E+000 -4.883000000E+003
 8.030127716E+001 -2.000000000E+000 -4.874922852E+003
 8.050147247E+001 -2.000000000E+000 -4.861823242E+003
 8.070166779E+001 -2.000000000E+000 -4.843799805E+003
 8.090186310E+001 -2.000000000E+000 -4.823777832E+003
 8.110205078E+001 -2.000000000E+000 -4.808876953E+003
 8.130225372E+001 -2.000000000E+000 -4.803000000E+003
 8.150243378E+001 -2.000000000E+000 -4.801000000E+003
 8.170262909E+001 -2.000000000E+000 -4.798000000E+003
 8.190281677E+001 -2.000000000E+000 -4.798000000E+003
 8.210301208E+001 -2.000000000E+000 -4.802180176E+003
 8.230320740E+001 -2.000000000E+000 -4.815191895E+003
 8.250340271E+001 -2.000000000E+000 -4.818000000E+003
 8.270359039E+001 -2.000000000E+000 -4.801708984E+003
 8.290379333E+001 -2.000000000E+000 -4.063864014E+003
 8.310398102E+001 -2.000000000E+000 -4.732908203E+003
 8.330416870E+001 -2.000000000E+000 -4.770000000E+003
 8.350435638E+001 -2.000000000E+000 -4.762738770E+003
 8.370455933E+001 -2.000000000E+000 -4.749727051E+003
 8.390474701E+001 -2.000000000E+000 -4.739000000E+003
 8.410494232E+001 -2.000000000E+000 -4.734000000E+003
 8.430513000E+001 -2.000000000E+000 -4.733000000E+003
 8.450533295E+001 -2.000000000E+000 -4.733000000E+003
 8.470552063E+001 -2.000000000E+000 -4.734000000E+003
 8.490570831E+001 -2.000000000E+000 -4.734000000E+003
 8.510590363E+001 -2.000000000E+000 -4.734000000E+003
 8.530609894E+001 -2.000000000E+000 -4.733000000E+003
 8.550628662E+001 -2.000000000E+000 -4.732000000E+003
 8.570648193E+001 -2.000000000E+000 -4.729000000E+003
 8.590667725E+001 -2.000000000E+000 -4.725601074E+003
 8.610685730E+001 -2.000000000E+000 -4.721000000E+003
 8.630706024E+001 -2.000000000E+000 -4.717000000E+003
 8.650726318E+001 -2.000000000E+000 -4.714000000E+003
 8.670744324E+001 -2.000000000E+000 -4.710554199E+003
 8.690763855E+001 -2.000000000E+000 -4.705542969E+003
 8.710782623E+001 -2.000000000E+000 -4.695530762E+003
 8.730802155E+001 -2.000000000E+000 -4.676040039E+003
 8.750821686E+001 -2.000000000E+000 -4.640032227E+003
 8.770839691E+001 -2.000000000E+000 -4.428523926E+003
 8.790859985E+001 -2.000000000E+000 -4.639120117E+003
 8.810880280E+001 -2.000000000E+000 -4.694633789E+003
 8.830898285E+001 -2.000000000E+000 -4.734075195E+003
 8.850917816E+001 -2.000000000E+000 -4.671654785E+003
 8.870937347E+001 -2.000000000E+000 -4.010867920E+003
 8.890956116E+001 -2.000000000E+000 -3.388400879E+003
 8.910975647E+001 -2.000000000E+000 -2.996248047E+003
 8.930995178E+001 -2.000000000E+000 -2.867273926E+003
 8.951013947E+001 -2.000000000E+000 -3.443347900E+003
 8.971032715E+001 -2.000000000E+000 -4.037153076E+003
 8.991052246E+001 -2.000000000E+000 -4.668933105E+003
 9.011071777E+001 -2.000000000E+000 -4.710357910E+003
 9.031091309E+001 -2.000000000E+000 -4.695000000E+003
 9.051110077E+001 -2.000000000E+000 -4.708665039E+003
 9.071130371E+001 -2.000000000E+000 -4.720000000E+003
 9.091149139E+001 -2.000000000E+000 -4.721000000E+003
 9.111167908E+001 -2.000000000E+000 -4.719000000E+003
 9.131186676E+001 -2.000000000E+000 -4.714289063E+003
 9.151206970E+001 -2.000000000E+000 -4.707276855E+003
 9.171225739E+001 -2.000000000E+000 -4.702000000E+003
 9.191245270E+001 -2.000000000E+000 -4.698000000E+003
 9.211264801E+001 -2.000000000E+000 -4.694243164E+003
 9.231284332E+001 -2.000000000E+000 -4.691000000E+003
 9.251303101E+001 -2.000000000E+000 -4.687000000E+003
 9.271321869E+001 -2.000000000E+000 -4.684000000E+003
 9.291340637E+001 -2.000000000E+000 -4.684000000E+003
 9.311360931E+001 -2.000000000E+000 -4.687814941E+003
 9.331379700E+001 -2.000000000E+000 -4.695826172E+003
 9.351399231E+001 -2.000000000E+000 -4.706837891E+003
 9.371418762E+001 -2.000000000E+000 -4.714850098E+003
 9.391438293E+001 -2.000000000E+000 -4.718859863E+003
 9.411457062E+001 -2.000000000E+000 -4.718000000E+003
 9.431477356E+001 -2.000000000E+000 -4.710116211E+003
 9.451495361E+001 -2.000000000E+000 -4.697104004E+003
 9.471514893E+001 -2.000000000E+000 -4.679092773E+003
 9.491533661E+001 -2.000000000E+000 -3.923906982E+003